Variables=t10181685s,t10181938s,t10182191s,t10182444s,t10182697s,t10182950s,t10183203s,t10183456s,t10183709s,t10183962s,t10184216s,t10184469s,t10184722s,t10184975s,t10185228s,t10185481s,t10185734s,t10185987s,t10186240s,t10186493s,t10186747s,t10181685s_Velocity,t10181938s_Velocity,t10182191s_Velocity,t10182444s_Velocity,t10182697s_Velocity,t10182950s_Velocity,t10183203s_Velocity,t10183456s_Velocity,t10183709s_Velocity,t10183962s_Velocity,t10184216s_Velocity,t10184469s_Velocity,t10184722s_Velocity,t10184975s_Velocity,t10185228s_Velocity,t10185481s_Velocity,t10185734s_Velocity,t10185987s_Velocity,t10186240s_Velocity,t10186493s_Velocity,t10186747s_Velocity, ID, Error,Residual_mean
zone t="Time0 sec"
i=80 f=point
275.7738497119054, 132.32342486311387, 227.0768480763704, 474.0955560582715, 315.3439484631938, 349.58489202770915, 600.6629100743344, 978.1422478837391, 884.6098460138614, 931.6482082900606, 898.9704234545882, 761.4934234938207, 469.6848184815194, 393.636097725379, 204.04101001267549, 443.6146715369047, 490.0176544443032, 223.91818688073516, 321.0456551610935, 871.5827668596918, 605.1116460060887, -0.9744219111699357, -0.7205976533917042, -0.8020318403692559, -0.7915632171778437, -0.4250139982438723, -0.15990514544945977, 0.8419847883191467, 0.39924705661187354, 0.7543468954686556, 0.608122232888042, -0.5497379247609646, 0.9645649125980995, -0.6546064970164962, 0.348452006369935, -0.8426404944393697, -0.9719781762564725, -0.2706427889681555, -0.9110784731450814, -0.2791059124557529, -0.6176799872038561, -0.1583562393378306, 1, 40.65412964290269 ,0.9780954594883713
494.8583448355546, 24.664620309805763, 591.2789278073315, 333.886014813354, 290.6092042126841, 935.0567604423906, 978.4600528684472, 63.90856756073471, 374.05608819786937, 752.4478429519336, 848.6516117579406, 667.3309353067062, 891.8888091196791, 899.3018657653678, 747.1434480813533, 975.0271614479869, 64.82453301998036, 475.94686396206043, 742.9116744005512, 807.7402096516416, 962.0738232146474, 0.27044473126554824, 0.8883353467861654, -0.2124106248798321, -0.17986602050721667, 0.3151831147531181, 0.42584166447297234, 0.1807793407428928, -0.9595041644214926, -0.6592109433032871, 0.7875685337214409, 0.4671169953183498, 0.40419431816837514, 0.040930525285449715, -0.7445905544981675, 0.9195552083083804, -0.2479089311225875, -0.2086115551094605, 0.3716107767551131, 0.010467541335362762, 0.7020665667359853, 0.14028327188411227, 2, 55.66181469192917 ,0.9780954594883713
201.1826865611116, 870.059058323301, 341.6479808246663, 269.265277238269, 224.5171455417403, 270.9887911090998, 725.9170205974967, 34.004964272556506, 608.5801301402397, 431.8257979710917, 92.82940032250198, 912.1624910497716, 264.6524281278634, 79.41105222306322, 125.30600767869393, 848.1057452011535, 36.90535925422944, 470.2755664592695, 842.1361800616548, 998.1833399501321, 759.3488560567192, -0.08331795728840707, -0.6370341355272628, -0.21280824935405418, -0.8244867457340732, 0.3922930769139563, 0.032421360799058, 0.8514136342098395, 0.3239361544202435, -0.7286052088825956, 0.3394785979910633, -0.9612461592635599, 0.7298222190334667, 0.20520963048793694, 0.627249298674188, -0.375333112156903, 0.7341558809281519, -0.0756309104274484, -0.9097124509088441, -0.01343297476274885, 0.20459547616039586, -0.4502398433589192, 3, 51.2967085188824 ,0.9780954594883713
680.3726403186841, 245.03419440368103, 591.2928678996793, 500.9945556792771, 372.2311643435875, 356.5096064081176, 727.8382222482372, 754.8721249391399, 111.82126577599927, 333.49021823673263, 162.0228713074936, 490.42919222369073, 65.48309867387059, 664.0512618960181, 953.040482466453, 217.15521710429275, 867.4996953606476, 421.6136238157339, 402.10363160020034, 254.56099922283093, 712.3270475172578, 0.46938719881129964, -0.31571390392654486, -0.2352187347585717, -0.2466074042424029, 0.034608139846314945, 0.61282818567636, 0.7902413998728739, 0.7278415874808, 0.5504997809291607, 0.45861460343996363, 0.6687844632021107, 0.6071974895566841, -0.9016908091301108, -0.7839274092153365, -0.7406406984814413, 0.4451437191402732, -0.06590200727907924, -0.06450470229839445, -0.9507113887186343, 0.7566711223141838, 0.27565473444419797, 4, 47.7363988254484 ,0.9780954594883713
115.33922123148832, 72.90971709722815, 386.2446694879015, 232.05660585721566, 81.99345542105318, 714.6427532332679, 151.30998223420545, 524.5434701132692, 744.379965889573, 903.3194380028659, 512.6651800632583, 711.6654940276558, 780.0855821938918, 263.81189055267674, 528.9126695143029, 625.0921085925894, 903.5197330274253, 281.07593059379064, 878.3468577603229, 312.0626453531743, 186.50795265738273, 0.5132708261789174, 0.6081083634268798, -0.7216844469676986, 0.5611138761564256, 0.7018562710786864, -0.06778573840663693, -0.028046249132531953, 0.8931696989493494, 0.06906107179483612, -0.04974069218325372, 0.9120541946995733, -0.7500385554448614, -0.9759328127160278, 0.5103042029498666, 0.8973172910658371, -0.6475114732219063, 0.029427594502203336, 0.8597998409831509, 0.461215124872995, -0.42306702281554553, 0.1570698505381154, 5, 48.42510633394945 ,0.9780954594883713
617.9763792678266, 435.70617423454416, 661.5264071145918, 515.4309627428777, 854.3058980989701, 171.45688326828778, 586.5561116353117, 245.87640830452028, 864.0218564875646, 303.66692564655426, 211.9890424743267, 451.255409575526, 587.4930733678788, 808.4171387360832, 483.8833895973175, 890.429157930068, 984.468391621623, 871.6162984218896, 247.15682988857378, 141.57596045510246, 35.930751802978, 0.8562785138398505, 0.20547286779895324, 0.3882263823271648, 0.6124214085835724, -0.3571571146927932, 0.05422869246142481, 0.927538054774147, 0.8045919392264256, 0.875243569022681, -0.44072746541048446, 0.6540907596454775, -0.9220211981601021, -0.5916580687831767, 0.339650587184932, -0.6178896076673082, 0.5920029411316376, 0.9714773166325184, 0.21574903058281514, 0.7894509261179481, 0.5482440611786035, -0.4283318538264471, 6, 48.89176571680058 ,0.9780954594883713
143.32481666644924, 955.8570135020145, 601.1015281049172, 838.2670954070023, 742.835195614407, 13.67040827330268, 915.7216982756338, 195.05078203338533, 750.4540355365518, 598.5709013844863, 304.8319535576414, 362.9844020206784, 815.3946487415817, 567.1552630836779, 368.18628057454515, 983.0067872010458, 19.219864729155823, 826.9177905938458, 33.74874440228348, 936.7464273045293, 432.1294198934626, -0.5973986838800711, -0.4152002311380274, 0.01643756489956627, 0.5757858799167779, 0.5309790578610964, 0.8423341542598604, 0.9332326670611468, 0.16397190694103148, 0.4326407489514992, 0.9132334701508844, 0.8220628483456622, -0.11686938709356642, 0.374593792661976, 0.7386783755907183, 0.21834599271509503, 0.46180801097620794, -0.28749793839720983, 0.6303337427081446, -0.3630625769459306, 0.4324466657309942, -0.34295846933292573, 7, 46.77178060879689 ,0.9780954594883713
277.0828179266478, 814.4969885316925, 351.94186568788297, 187.22925742025785, 139.70921254502855, 399.9834358379055, 385.7913953958514, 36.46176991494809, 709.49156284969, 13.57707817363185, 706.0165941435646, 717.7847984512866, 527.5305119677078, 562.499131651104, 54.00758265906014, 601.2775004813805, 54.676168613690955, 881.9288109544508, 726.596297399274, 186.9192574945232, 640.0945653228689, 0.666929583732377, -0.3018048033772678, 0.4514720350383443, -0.2643205230226213, -0.7544773510764862, -0.685385570818688, 0.4110211285580656, -0.2450082824991977, 0.2862480100035103, -0.23245396131368157, 0.9941430003703511, -0.2633858188163143, 0.9955405636215946, -0.16221061516256396, 0.21388070141431026, -0.3104071492786158, 0.07919454226312128, -0.5251394642093221, -0.18795845170334635, 0.23205450121629068, 0.4411508106570241, 8, 47.85074539924202 ,0.9780954594883713
575.8400826874778, 540.4420284822022, 169.8074608184569, 645.7225593427677, 711.714183588605, 646.1165851228525, 524.0562336038639, 117.72907548259126, 327.9313641940924, 607.6106352002319, 39.88174107193887, 553.4853906823275, 614.7680876084085, 83.64280800475288, 152.42237229388377, 398.8403765632854, 708.867383776437, 362.08795085693833, 381.24330827860564, 97.14321280495442, 567.3243523632931, 0.6676319756189477, 0.5819546635377899, 0.06309160790881752, -0.6429085238332792, -0.21503704542449076, 0.6265221475450846, -0.7079608196922904, -0.5673869587689964, -0.4699612914019473, -0.6389599028731487, 0.3331345406658237, 0.04289983747601189, -0.34473868472699265, 0.5929059347092007, 0.16674392481102052, -0.0960148644212504, 0.9748028589588784, 0.7286037179467473, 0.9217247807262647, 0.9877520350614601, 0.08837998194292407, 9, 38.07184806542754 ,0.9780954594883713
103.3158409867021, 27.90634323820662, 76.37335700276104, 137.74303898107632, 635.5133875567668, 899.0951120574058, 221.8947150913394, 850.2212568572306, 77.71996512262103, 327.77903046913593, 594.4683609557181, 953.3698759097094, 422.5238698660335, 472.1251833643568, 396.2299533820045, 287.94740625292116, 64.86125162074453, 165.64484002388235, 732.8017509099474, 210.89806972922233, 464.1753394270256, -0.4348605972984916, -0.9768501049475076, 0.7243612435241833, 0.2517533495697848, -0.9037037113538997, 0.6899664470158005, 0.251775160627822, 0.4779361021798554, -0.7587136866632391, -0.5962391452939149, 0.8173468924504812, 0.8459619437913604, 0.9521722743693353, 0.8480252222408566, -0.039957200958393946, 0.8107279775686107, 0.18228729915969577, -0.7187664119027684, -0.6370747129501926, -0.4276011082826845, -0.9540310300265717, 10, 42.80630920302293 ,0.9780954594883713
217.17755115969672, 117.09653904436645, 339.4650507366151, 19.89096491540021, 921.7757950464693, 406.1399216736732, 326.30563191850916, 426.6878533344731, 201.27285603321465, 521.0937581935344, 88.86910333182452, 131.30673838126094, 282.31989040058204, 502.36169220839287, 319.73243621206274, 180.2647543334177, 270.37178003348936, 859.1988179706498, 49.731995649506366, 507.269507771522, 289.3558579104236, -0.21647119290947714, -0.1841860909975055, 0.23563245039595437, -0.9554459551257755, -0.29104961187728184, 0.3476201893790618, -0.637196524565286, -0.7677172811470954, -0.4875956592141497, -0.9837679316683186, 0.08181793300006612, -0.9343077966275215, -0.20017823813964797, -0.45126908465823523, -0.03531040731787871, 0.7793247813935593, -0.6537039381139835, -0.6085039720609262, 0.6189569276889582, 0.9141170599065209, -0.19278050317856255, 11, 44.409148075765216 ,0.9780954594883713
73.02430643603076, 41.82357841619855, 379.6297230849004, 256.4872352452848, 281.31453016263094, 907.9252759446811, 299.5522198276055, 297.6441419447594, 980.9010451282879, 378.9686619807042, 77.59158703549107, 48.54194458498973, 329.6885920505942, 811.4882223468646, 487.1748782877178, 142.16680172163188, 891.8132300378238, 86.91511654814776, 499.974880786094, 963.0150393077492, 561.6456640836981, -0.6024393606963678, 0.8144445167832344, 0.16155383760919673, -0.16905954327384598, -0.9680832895966005, -0.8130141399065061, 0.00037812831530215085, -0.33452243053544795, 0.22091630561754205, -0.14224810908187813, -0.5759841321323287, 0.5429583271106926, 0.41787733488340395, -0.5903687692476371, -0.7409180761761547, 0.4285237291392465, -0.7300051343888934, 0.7436634879580784, -0.653523978581799, -0.4383415067137395, 0.6440716113000045, 12, 53.470632159225126 ,0.9780954594883713
814.837920827963, 599.4362551954174, 752.8230262110585, 613.9250288813436, 684.6272811081035, 763.5517620494409, 980.4394469555932, 976.3119166183088, 527.7339442240246, 644.0888267398777, 658.7833179276203, 187.48344576134969, 400.5049768602127, 717.3733681123645, 218.25533074170679, 808.7909200510062, 391.86234730037285, 508.7166329537935, 112.80778452627627, 130.63980192390247, 851.5544269663943, 0.24322859575172084, -0.004449848191664829, 0.9914586868552824, 0.8870583602848414, -0.8822140142154093, -0.25049344202699264, -0.45738363843107166, -0.35589475151738914, 0.8089556982959607, 0.9107329717385875, 0.2963423569670822, 0.08193408189717544, -0.7543873856411223, -0.2457847127906434, 0.8689776007943883, -0.16381024042486003, -0.6064724474091321, -0.15066186011032667, 0.8785334355762378, 0.9288772302828563, 0.9739780297567642, 13, 38.044402072252225 ,0.9780954594883713
341.48495468386096, 514.1392755636444, 767.5886428835701, 429.51584916767496, 294.0996321568757, 353.22791971704845, 790.0962946992177, 822.3826049586814, 826.8245788368052, 742.3098462579675, 334.2724955341897, 483.57686041489546, 409.8622663413334, 463.0893216500698, 668.1304380509096, 883.3327168090889, 719.8768287027705, 473.52103959790026, 25.322100708245365, 657.1797763355328, 544.8357100139414, -0.20844429325491798, 0.39549205274265287, 0.5573317479517423, -0.5854641657739026, -0.680307743035288, 0.8769342066294927, -0.7033048393547525, -0.5685328128737621, 0.2901230189565167, 0.2606005886060305, 0.028148282328511742, 0.07775851114781451, -0.03066299241414283, 0.3851325333414637, -0.5026075257629128, -0.3036869530578823, 0.9634642358897585, -0.3456239276259869, 0.7415534849554155, 0.8907140897584811, 0.657472858511635, 14, 44.71105502311211 ,0.9780954594883713
879.5612112242425, 384.29603785978406, 836.7175669222123, 714.2643783146767, 200.1914323723818, 218.47884365351956, 565.3706541843372, 612.9229427365888, 47.96133930553936, 53.96564169735618, 451.6065158875369, 542.2497299307253, 548.5348213297231, 780.0099001107774, 31.699186752743636, 649.7057320982763, 289.1465778134973, 974.0966889892688, 958.3076990516504, 755.2964439068837, 646.487583098672, -0.4955396344285956, 0.37685335195208225, 0.31476030477548567, -0.07302963966415366, -0.16509508333185008, -0.9774396184197218, -0.7242528661669012, -0.7430027747544088, 0.6909437055343197, 0.6266389036324012, -0.1871592279811154, -0.2818628799561722, 0.21482052060502643, 0.03489485749195209, -0.4947693518261198, 0.14613674447925984, 0.2314903901662182, 0.10754950254551598, 0.7241355885040566, 0.7054106476044069, -0.6944373479323191, 15, 57.25955580573598 ,0.9780954594883713
622.4593718844578, 645.3409472922021, 567.981669444754, 784.4523895852687, 276.8576407811283, 560.581726422083, 722.193215344333, 457.9936404722099, 163.55155667765752, 207.19857750608762, 67.48171018291427, 657.0680554373944, 114.40652518576178, 354.2468047786238, 419.38922330391927, 753.7025477448979, 476.19037881420047, 540.8939726949757, 163.99275620736543, 664.6296371484824, 32.445195983904604, -0.9190386537213153, -0.39400913504065427, -0.13372550966780516, -0.23565889094115877, -0.35347232482361135, -0.21233620339218806, 0.9419473549057744, -0.44672577863031737, 0.12724820826128025, 0.21276976949650162, -0.18508621503598288, 0.6227342222157799, 0.260772294775212, -0.6473988774788997, 0.7118126925019861, 0.13285128469284047, -0.32221006827104404, 0.037086244819769076, 0.7955374572594514, 0.1111338497722083, -0.49175978894462813, 16, 44.941699943369095 ,0.9780954594883713
488.30564478973713, 805.306572114701, 929.7944478806896, 519.038619379696, 354.27069374700403, 185.84827775150214, 967.0299491715491, 856.2412251129305, 138.08474439390284, 931.5430124869525, 546.3532211056498, 488.92206960977813, 49.71731328712925, 399.18174916073457, 122.07905251333506, 715.1137280338709, 70.52247128954437, 162.78737321974046, 983.9677763875933, 436.82691027183193, 984.5522258279174, 0.3209012007416743, 0.8867526400768826, -0.7542112265879839, -0.03502629200130558, 0.06822874702296988, 0.4933664189978382, 0.12055654279917571, 0.03290190812237892, 0.11557809793431395, 0.7888631064400324, 0.48215435833757647, 0.6025570729010168, 0.44389484383801103, -0.9853697616903416, -0.6308518603849442, -0.984048685852907, 0.7377426408712342, 0.629995499116907, 0.7176599351293984, -0.03763246705527723, 0.5165949784801727, 17, 43.901555235178485 ,0.9780954594883713
616.343993608673, 720.4792269407316, 589.8294513084527, 911.4464067466912, 487.65243536084256, 269.2620155805337, 115.9165359020512, 16.740934130972217, 166.60903041020103, 745.9573579948914, 454.8448174129052, 390.23994084060564, 75.80779275407579, 454.85218659106886, 125.70643435600893, 469.5264205014449, 576.2293876519129, 405.77475152014165, 977.6980309716431, 804.0170637963321, 386.17648687285424, 0.2156491003262142, 0.3662475768137283, 0.8595271327287313, 0.5476537767621188, 0.06847320066607065, -0.8790369309203736, 0.9554710016146699, -0.5303351341450879, -0.9057115489521887, -0.6752446692881588, 0.7414027336464992, 0.6829023000408896, -0.5305410482936761, -0.9172200076681156, 0.5547998568894406, -0.07009480507671495, 0.6177378873432409, -0.6747751720925106, -0.3042368391571866, 0.2710425575368338, 0.9785474964116383, 18, 54.01200110025092 ,0.9780954594883713
24.717693429095466, 184.7006205858137, 931.9547722387662, 457.7824151867503, 876.0760919871452, 792.0056332989877, 963.6836818175791, 927.4867578300222, 814.1748441256956, 571.7652578822618, 689.3492816069017, 372.4797650422228, 691.7465192830215, 784.8467381407473, 957.0690108959847, 315.67051987184294, 45.881153319326074, 941.7418080869204, 84.72874778229055, 880.8341542992083, 324.3906290390545, 0.7031422977522792, -0.5696054259718968, 0.9829826799114627, 0.46129774602565554, -0.8342393424111283, 0.8047270740825403, -0.3836711061085758, -0.043747222757682946, -0.8122363563135795, 0.06552475975751615, 0.1383531068584154, -0.17775392937167056, 0.9415967556099945, 0.27546988131511374, -0.2142765760690466, -0.49317389349688034, 0.7312082660893979, -0.00544399890372671, 0.863593537280309, 0.18050114719905874, 0.040660499436160125, 19, 45.857899150947105 ,0.9780954594883713
33.08325783969168, 725.1276814714571, 966.779636987547, 256.7510172333938, 128.9811020163477, 627.3329439498256, 344.60010358333125, 967.0655116194655, 919.7101789153254, 432.15830581792835, 768.2802683533309, 955.2947568388736, 632.5349017078526, 479.64548987094656, 112.01921061662567, 231.71864301165246, 764.1157732415153, 977.4914678293594, 263.60586202871536, 428.0680532350388, 660.5543437302775, 0.2961070162146813, -0.6268969865959759, -0.8883893039271114, -0.6956732676865303, -0.12044788421690411, 0.5955382860508522, 0.766265837748225, 0.090638649979643, 0.735704806769339, -0.9036037694144237, -0.07799759872512868, 0.6423470734994459, -0.5595579244551798, -0.39578959232950783, -0.8134230325200917, -0.38611932402866267, 0.6637001946035821, -0.767218002431713, 0.2801189300701947, -0.6175734549685192, -0.8565572086044375, 20, 44.42897674946072 ,0.9780954594883713
261.01471107644204, 811.2591339511699, 215.7051582359729, 280.9294817762041, 564.4575115301418, 139.55523100956125, 100.24318504976404, 117.63588971858152, 162.99708693344317, 948.1250294003929, 148.93038903830836, 310.344805771406, 251.18545813993322, 522.5783242920517, 474.3381343979233, 587.5228134579966, 431.3048550645803, 436.37816889462766, 615.985435192134, 465.3648082896027, 241.07654878513262, 0.2996007486580923, -0.2485714794593301, -0.8038512112418057, -0.1159666194132416, 0.7283972954002105, 0.3466093065595608, -0.01532339721417153, -0.2015980543498732, 0.8340089799304242, 0.6595042364383834, -0.7204188270520984, -0.5681584162042019, -0.8732676352023143, -0.6985600508728396, 0.9760240168152643, -0.17056254795598558, 0.05773593983858816, 0.8148156868252387, 0.4207430900436029, 0.6786421309496711, 0.8936583133457914, 21, 50.73782444318981 ,0.9780954594883713
377.59288895134904, 449.21270035486026, 425.52788694255673, 466.68741690120277, 829.4818133842493, 609.4441359010666, 170.06566493902076, 86.90564016579272, 176.415933281024, 571.9518506085919, 646.2822751314666, 230.58000219687182, 354.23209328735504, 755.0324193820675, 249.87886963802487, 195.49724549118054, 98.79712837794796, 717.7978013714869, 723.9295565962996, 73.73390938693014, 0.21975525892770076, -0.805907830401422, -0.5041167133342852, 0.4837769139042345, -0.25204928028200824, 0.9443369995084518, 0.535578399696341, -0.8693923973247226, -0.9675417176317267, -0.21538876657097372, -0.09045490882920015, 0.5250014834616099, 0.5980764233202376, 0.9674622009567213, -0.9307740946579348, 0.574905134449893, -0.19040324655141672, -0.26214491002779017, 0.5132409314386039, 0.536590263082636, 0.6578194582648622, 0.4312591480685588, 22, 41.37029559799409 ,0.9780954594883713
441.6632879351796, 148.5019881358405, 83.12178881576715, 759.579066798434, 125.12321416073047, 424.6098056943173, 551.2631990274186, 287.4486202265406, 161.43887542577662, 526.5912269958866, 276.0684235734577, 509.85102379889224, 423.73084083085354, 773.4455683954503, 611.7847082324007, 876.2653751926017, 565.9900552545782, 943.7244191915185, 463.4062694373866, 268.8504719047178, 995.6926163731883, -0.3564825257236548, -0.041697434015212975, -0.7971568997092355, -0.18297457855890742, -0.8870968477539325, -0.09470649007404552, -0.0740161509432764, 0.39221308453568504, 0.981645849684827, 0.4137772870370371, 0.5861919522642889, 0.13589253986519179, 0.7855214504623012, 0.7952121201176756, -0.5035902774132863, -0.9336803576065338, 0.4699137918889902, 0.7466231989372949, -0.6290676786785183, -0.10829608062487983, -0.937428274068286, 23, 55.058063335332015 ,0.9780954594883713
602.7227026671112, 499.7389010950294, 544.3501356485568, 832.3463865728118, 169.0536164808164, 412.08462064106345, 80.57581197995079, 149.18386461957778, 319.8355474015123, 42.5423102448228, 350.96019590360385, 704.7651406517468, 270.0220283089687, 672.9592182548596, 154.93815524411747, 305.27164358058553, 162.30376526962908, 837.3163317476052, 348.01351229097133, 723.8069650776151, 935.2382154895098, 0.044217007416225584, -0.9802230673386907, -0.5330934282848967, -0.7816143690237054, 0.5603014116150753, 0.999946744784662, 0.3248257961831478, -0.8866045936013169, -0.6404841589474206, 0.8879261116824573, 0.1318010153379532, 0.45640229831882695, -0.52894012992529, 0.8635480541405576, 0.2596922019802701, -0.05244505026777602, 0.8096240415455249, -0.920399986188343, -0.4906772565680364, 0.16174056927949465, 0.7261423157054494, 24, 51.04146809303418 ,0.9780954594883713
530.35755888681, 651.0179992788459, 156.99954877912504, 366.23353122485634, 925.0950476006155, 131.00248285490457, 944.3892794161051, 280.45954357743665, 188.0017125112199, 710.9014876982906, 627.3465406279894, 214.42943543952165, 192.07210843146493, 170.95706805727295, 82.54078181778091, 130.60966137637297, 453.5576556570724, 917.8791489288069, 799.6649577094083, 432.8200468388095, 39.09605336136579, -0.3183339849160922, -0.7601368739869216, 0.4451034946897712, 0.3027715573215872, 0.8271148971441904, -0.5944377927708884, -0.7873210836064488, -0.4357746402779825, 0.1579337415890829, 0.4389780025994676, -0.15160628629876638, 0.5736234366748771, 0.4008624164303696, -0.8350032279999988, 0.5382340391713696, 0.22014481738396752, 0.7733440447570656, 0.02867461227478163, 0.3439297104663994, 0.4967335454597468, 0.10676969242401158, 25, 43.94411585705035 ,0.9780954594883713
839.872483403597, 159.70131151186317, 254.7144161807463, 950.0204895882429, 129.29770257852036, 860.3925982753078, 979.7323454956224, 579.855613647604, 170.32455873413664, 128.81314516656872, 693.2957414791447, 783.8073141375049, 849.2470345346153, 467.14288423766516, 195.6910897909887, 492.88190082204176, 833.9201507290878, 358.96065177022416, 658.9550395272942, 382.89927303563684, 804.0655113697314, 0.07890286531661972, 0.23279267921785074, -0.5506361599048131, 0.42565813834390465, -0.6928126936156149, 0.35141110989266844, 0.32960706142511076, -0.13072571294850754, 0.24372218451645788, -0.5912736247962682, 0.14129667282237235, 0.7915128802520763, 0.05432850180451032, 0.09704519408070178, 0.7008511178038894, 0.6970912397071052, 0.89635393807487, -0.44351428577238194, -0.37143315304808544, -0.09754029061426217, 0.7557148825634932, 26, 48.04087948192874 ,0.9780954594883713
854.1617210903457, 870.6761319021729, 86.62394713876765, 134.95802457584537, 678.7165795878013, 688.5593354303121, 322.69831135787973, 230.32203750750725, 803.0145285299071, 664.0782112982456, 419.7413807273852, 128.09360949880278, 997.1676519286586, 42.78587326459804, 315.0706847918886, 323.4811492055238, 282.98043535818795, 859.6374145326016, 550.5905717447561, 200.48134737641044, 425.5857233269701, -0.014646407026094543, 0.5207178732070203, 0.2892692318075043, 0.6827897241178309, 0.5018408056120629, -0.386719383988515, -0.8674955723999083, -0.21547818335056657, -0.0036156783317202734, 0.9613425182257418, -0.9037911106889931, -0.07014516829981243, 0.5851564220832397, 0.8936963812380829, 0.12524406587798276, 0.668418885505824, 0.07718370445829925, -0.6835166037753158, 0.9241622031832433, 0.35837332846620673, -0.9378372723769299, 27, 42.79266205268241 ,0.9780954594883713
201.4126140722411, 886.9761699579441, 530.0650482641812, 482.4949441593488, 390.2732479450236, 259.9594548638287, 809.1740475437792, 577.8335777338137, 860.5578659875459, 573.3549496697624, 952.9094106955768, 13.496794122107136, 552.2572228894091, 623.6720373452234, 996.019406707181, 791.5981546083074, 600.5185643711449, 292.4054856558106, 99.84758138141592, 656.3718694993628, 717.5813005250903, 0.1457616047839383, -0.5728637671874937, 0.2714662972241346, 0.46938882665858506, 0.11457527025775271, 0.8262898078216623, 0.9211664369054007, 0.02297333889779951, -0.030091606287395045, -0.4204930807777092, 0.3973303809959112, 0.1349562975823868, -0.360217355101923, -0.806537063224094, 0.7927540758791041, -0.8008440678391711, 0.0387767403642314, -0.2531984905409901, 0.8469172936661025, -0.18631643081712412, 0.7607357166356921, 28, 47.66762942444498 ,0.9780954594883713
530.3923418208037, 88.0287822060416, 534.7566617759902, 718.7222768529497, 757.836783516084, 298.38451826295864, 539.0130185977829, 909.7028525888254, 569.9560673300379, 461.9189255302265, 669.0608843009962, 550.0397096604045, 409.44811976549124, 290.50138934423484, 73.885828376284, 210.20548962564177, 32.2833217497398, 216.22610616733328, 377.59341092406663, 173.7114234113003, 660.0800793013058, 0.16782520767157005, -0.1961354021646451, 0.07846584527762612, -0.8275544083177737, 0.5569536348655848, -0.46087259452219875, -0.7249997792819736, 0.5049669355459698, -0.5976367174499062, 0.08170374110936507, -0.842457613235422, 0.6472322661439065, -0.3755908562944019, -0.7796449153479179, 0.6406791721986154, -0.1712197209244124, 0.7336514228594266, -0.6236688260577392, -0.9744180580826654, 0.06084342738967474, -0.014390056467896706, 29, 24.48754840225456 ,0.9780954594883713
874.3804604513263, 628.1347261133706, 597.3539513955897, 810.3313508599533, 79.46597916130094, 804.6606238097321, 240.6451644292542, 369.94309988658745, 756.2483050284504, 311.05953395025574, 710.198802122197, 997.0103486574802, 4.963191725157801, 982.3177648200761, 257.79111250547595, 275.5430262575836, 85.06702471776994, 243.11418892342328, 979.7889879214796, 592.6722631331401, 677.6732687539578, -0.008010275417550394, 0.7065334768626845, 0.0870915867278117, 0.40677528994940393, -0.9984306020300062, 0.4762039041269923, 0.041429725754404734, -0.4131240774868308, 0.5897491527807406, 0.1592150131378849, 0.04644499737082919, 0.8733543551663643, 0.3458329391128663, 0.6407262137619609, -0.6323509693665825, -0.4071123650931372, -0.41122138125020236, 0.7104345101112315, 0.9882485088603561, 0.7748215333664841, 0.34330132508152245, 30, 45.00847838666463 ,0.9780954594883713
374.89348319738383, 191.45930682461153, 281.6861886537334, 246.38790553140234, 418.4953059055769, 766.1531391892212, 247.69576207253297, 836.6464027530056, 938.1324542449746, 937.5132948493782, 178.24069503774786, 777.7837590256455, 338.30019903070496, 577.8548764556621, 802.0595486896759, 98.37075213463564, 353.93492707542816, 57.85087577261194, 694.5319422700576, 26.65860313890567, 396.14750608687064, 0.552484784795537, 0.6482829881224514, 0.6795737528140837, 0.7984515906066492, -0.9662739762876564, -0.8760714048597742, 0.35974302263976043, -0.9530492840933409, 0.5624072069374877, -0.03116425425918723, -0.1947005586617463, 0.9841695832981552, -0.2977388880251268, 0.2222916918289326, -0.2321771055492896, 0.1897890500955215, -0.7046651061495013, -0.4017308936945314, 0.6225279176976106, -0.2259467726377149, 0.948498077917056, 31, 35.58764204992363 ,0.9780954594883713
722.0744606007996, 790.0813772817247, 597.6504720835892, 296.0635191730514, 735.2496618136861, 688.7284139800314, 104.32406515007153, 809.5292754937933, 155.93307614953855, 629.2443243308738, 601.3203996935297, 8.43833044813913, 446.65423242824465, 195.46225866247624, 706.9186722684632, 321.82815799205355, 199.112896563009, 820.1935254952642, 173.54051900553168, 668.0509504895601, 120.5126234439734, 0.38527230974461846, -0.44651299683951184, -0.9932211471312042, -0.311264839437261, -0.4761158826659948, -0.9556802612404007, -0.8113793487290955, -0.08385737039242147, 0.47939760620596994, -0.4950756293095826, -0.9651757702930441, -0.7916431032694908, 0.7612168868180176, -0.3489388697522944, 0.347936488001678, 0.9312899758313038, -0.5468581782107214, -0.7772198247657636, 0.6930002942569782, -0.8403094443057026, -0.8294466828774243, 32, 42.13707137133823 ,0.9780954594883713
24.56825262352158, 377.8348274595634, 851.4351148426576, 134.15821643193405, 459.03252392466766, 645.0460926609472, 978.7136006739653, 280.74999147622157, 852.4374350204586, 888.4489383944408, 481.29978270381514, 634.550958914842, 564.1430551813673, 357.9350164594244, 295.17094105493237, 689.4787272163741, 810.6646378458208, 597.5531404815647, 494.87208968149497, 628.2442368428882, 83.86566202166546, 0.2693942318072877, -0.7995689252710336, 0.9266981487374448, -0.3958386252398045, -0.5740634790050629, -0.4116222255633799, -0.25067536150730185, -0.02259912497171146, 0.8695498451268748, -0.14921311648133817, 0.5328708987719146, 0.6752328722553878, 0.3068436470193179, -0.611822361674695, -0.8054631274886508, 0.609380006875921, 0.4717977314248485, 0.7959166356889193, 0.676824078161868, -0.793107596504373, 0.041584580251613934, 33, 44.3715440466413 ,0.9780954594883713